ITEM: TIMESTEP
299000
ITEM: NUMBER OF ATOMS
215
ITEM: BOX BOUNDS pp pp pp
1.0808728272 12.4191271728
1.0808728272 12.4191271728
1.0808728272 12.4191271728
ITEM: ATOMS id type x y z
62 2 5.6428718 2.5883769 2.1811193
202 1 4.3265529 3.6195656 3.131772
2 1 3.98092 3.9094934 5.7915295
87 2 2.7526482 2.6271693 5.6002427
158 2 2.9280948 4.6891697 3.9753429
10 1 4.5886935 5.6622214 1.5402815733
212 2 5.3976826 5.0368692 3.2466723
29 2 5.2101186 2.9528308 4.8061001
115 1 4.0462221 6.0777411 4.1450515
39 2 3.1883119 2.2586158 3.0470468
183 2 4.894338 5.4122313 5.8694738
146 1 1.8691459 3.3529962 3.8876344
138 1 4.0072096 1.5988866 4.6932923
19 1 2.1248174 5.3841031 2.2781879
171 1 6.2386691 4.3989976 4.89789
205 2 3.4834883 4.2592678 1.4565809864
90 1 6.4675555 1.9009072 3.843521
73 1 6.5007647 6.422558 3.3015475
116 1 2.3608705 2.9055769 1.3449223999
33 1 4.5191148 1.2020281443 2.0710813
3 1 5.9700803 2.321402 6.509611
214 3 2.5356082641 5.0971361 6.3932255
100 1 1.3783820999 5.9817997 4.6957616
113 1 1.3089138996 3.7001445 6.4951849
101 2 1.2464448226 1.5408135 1.2059797715
41 1 1.5752370593 1.2960258577 5.5053433
57 1 6.7458085 3.9755784 2.2597258
51 1 3.4669433 6.7095946 6.8278871
104 2 12.331728491 4.0155443 2.1982874
151 2 12.0779742368 1.9919906 3.8474072
16 2 7.325297 5.7882138 5.0165063
182 2 11.8026434701 4.5045309 4.7350015
37 2 7.5431232 3.3449779 3.9339266
9 1 10.989023 5.1103724 3.0755037
48 2 7.8577026 5.3688982 2.365212
76 1 8.6419024 4.7147115 4.0438098
160 2 9.6947819 6.1584313 4.1280917
25 1 10.736198 3.0516263 4.7287103
191 2 9.9550953 3.6805831 3.046837
35 1 8.8419848 2.2742627 2.980242
166 2 9.4559052 4.1051055 5.7372458
172 1 8.3439296 2.7338788 5.6282859
173 2 9.6472664 1.6611946 4.6752078
195 1 11.25551 2.6196302 2.1378573
89 1 10.4555447 5.5332836 5.8271975
176 2 7.2651381 1.3230762601 5.5329718
102 2 11.566705 2.3957092 6.451975
66 1 9.155941 4.3136092 1.3710284899
22 2 12.074955 6.5286442 3.1365854
30 2 10.1605288 1.2397137646 2.0045179
130 1 8.1191575 5.1362245 6.7177753
189 2 6.9958566 3.7894077 6.5884697
161 1 10.413416 1.0456000061 6.3697584
119 2 10.23949 5.700719 1.4201960937
177 1 8.9263614 6.7524232 2.4008263
94 2 11.500595 6.9561548 5.9030254
184 2 8.0510199 2.9171592 1.3089791949
56 2 3.2338758 6.7358986 2.469041
137 1 5.9629599 6.8080092 5.9796332
131 1 2.0548645 12.2171322804 2.9025991
142 2 2.6479241 7.1671481 5.0174389
197 2 5.6971079 7.01724 1.6442159
200 2 5.161808 7.4301158 4.3003448
1 1 6.0984083 11.268754 5.4375305
136 2 3.3867617 11.165187 1.9349531
69 2 5.4855481 9.462603 2.7050908
71 2 3.0767082 9.1821531 3.4862741
24 2 5.2948307 11.899379 3.7771282
91 1 3.8331543 8.5246366 5.1315664
108 1 4.1796938 10.542555 3.6673887
8 2 4.9667437 9.8710157 5.320882
96 2 2.8959732 11.570583 4.6183343
50 1 6.2868634 8.83059 4.3688405
68 1 1.8948654 7.8834514 3.2971266
213 3 1.7555014 10.2167018 4.4725257
60 1 2.2437642 9.8586696 1.8253988
168 2 2.553441 9.5451005 6.2071663
185 1 3.6470473 10.944314 6.3104764
209 1 4.3751469 8.0814617 2.5429047
84 1 1.3405455811 8.275598 5.9920642
58 1 6.6240704 10.829835 2.7761286
103 2 1.1597833386 8.4584206 1.6350358
106 1 6.8050798 8.4334744 1.7287677
79 2 12.2754514881 10.88108 2.7585809
95 2 7.7379467 12.2288076364 2.8996123
111 2 7.0511726 8.2132314 6.0589154
132 1 11.330335 7.1057613 1.497174589
83 1 8.3801425 7.1961733 5.1287918
203 1 10.974704 11.936915 3.7227572
23 2 11.913971 8.849779 4.3138907
107 1 9.0471037 11.182565 1.9467711
59 1 10.736496 7.5489872 4.1791478
6 2 11.772601 11.299927 5.4180595
187 1 8.7319856 9.193101 3.492111
211 2 7.4118141 10.2341152 4.480647
128 2 10.0234625 8.1541208 2.4994401
45 2 9.8600173 10.559146 3.6188182
40 2 9.4917827 8.5822619 5.2050909
32 2 7.6033448 7.7978035 3.4243286
124 1 11.146083 9.5163922 2.6243991
164 1 8.5463115 11.609162 4.5654744
208 2 7.9088963 9.8113322 1.8273684
147 1 10.653143 9.950353 5.2987313
153 1 8.180841 9.6015344 6.1688886
15 2 9.3151167 10.967471 6.2524042
44 1 11.468519 11.516217 1.0952044229
121 1 9.2085014 8.7968608 0.8521900417
36 1 10.2213467 8.0099614 6.9120667
174 2 4.8148839 0.9843034194 6.4096069
215 3 2.1798302202 5.1310798 7.0016629
196 1 5.6833298 4.7993633 7.6008436
179 1 3.5022849 2.0233177 7.3733735
53 2 5.9459777 4.6208213 11.963434
74 1 4.8701624 3.218955 11.905789
26 1 2.9616356 2.4548307 10.1114531
64 2 4.6480742 3.3413745 7.5163585
165 2 4.3846587 5.8218601 8.642168
98 1 5.4160098 2.732008 9.2297716
105 1 5.1790526 5.2279214 10.3057611
143 2 4.1161446 3.7895159 10.2261387
118 2 6.1821633 2.1805372 10.883299
134 2 2.1801225 3.1450604 8.3923143
92 1 2.6999939 4.9125797 11.123443
77 2 3.7980384 6.2883547 11.190665
7 2 1.5901236 3.5401785 10.970385
120 2 3.7365754 1.8583061 11.753921
139 1 3.3797463 4.3684206 8.6562396
61 2 1.8865398 5.5661376 9.4535106
167 2 6.4622319 4.1706796 9.2758962
70 2 1.3434467276 6.0156775 11.951147
141 2 1.8290662 1.1482898273 9.8899887
47 2 4.2877877 1.3883201129 9.0959746
63 2 6.7216946 1.7487774 8.2054969
13 2 6.7596989 6.230627 7.6521467
28 1 2.9994527 6.9283498 9.5126851
34 1 6.9355857 1.519951 12.549207289
152 2 9.1637973 6.5837168 6.8177994
65 1 12.3912159971 1.7564762 8.1606513
11 1 12.2229910104 6.4230293 7.6864046
163 1 7.0360167 6.0013053 12.030861
67 1 12.1127964054 4.1974638 9.2813306
210 1 7.5429335 5.5723273 9.3350098
170 1 7.8078085 3.098121 8.2997123
186 1 11.580749 4.6150388 11.849018
46 2 10.501128 3.2557663 11.753977
129 1 9.4317121 6.357887 11.108894
148 1 10.2308267 3.4723171 7.4589234
54 2 11.040575 2.8030579 9.1186935
78 2 11.271256 4.9221581 7.5928835
123 1 7.2744571 3.559721 10.958732
81 1 9.3632364 1.8757972 11.686746
75 1 9.6654267 3.8850745 10.0879626
85 2 8.8806871 4.5128882 8.3949179
55 2 8.5965805 2.4855508 9.9674475
145 1 9.9436254 5.9355396 8.5120594
181 2 10.769137 5.2739333 10.1523174
112 2 8.3317835 4.9568594 11.048631
207 2 9.1373984 2.093797 7.3007089
49 1 11.795009 2.1808194 10.838783
82 1 9.9311556 1.435146 9.0422655
99 1 11.851083 6.681613 10.3067491
159 2 6.8509043 10.637727 7.1114773
117 2 6.2304239 6.6302377 10.3212976
88 2 3.5762262 8.7299933 12.1882856243
144 2 5.8177553 11.480123 12.4485815183
198 2 4.621882 7.8542761 6.9345323
52 1 4.6870007 10.0899644 12.327212016
169 1 2.4547103 7.385844 12.0562559873
27 1 5.7419477 9.2509695 7.0095343
42 1 5.0508521 12.1207771883 10.778096
31 2 2.3448587 12.0410068812 7.2366944
17 1 5.4290336 7.2591713 8.6545581
201 1 3.3036104 8.953825 7.939196
162 1 4.9194186 7.6802048 11.265549
122 1 3.1105373 11.411674 8.935303
154 1 5.5685249 11.693773 8.0987397
157 2 3.9079704 10.741773 10.643991
206 2 4.1190349 8.3053529 9.5848691
180 1 2.6047501 11.801268 11.593989
114 1 5.2140805 9.7002576 9.6811673
109 2 4.4317066 10.33381 8.0115368
135 2 1.656835 8.0188889 10.3820405
192 2 1.9830269 10.0434013 8.8244164
149 2 2.1370567 7.6088633 7.7936644
190 2 6.3478907 11.075507 9.7939092
127 2 5.996664 9.0717961 11.417577
194 1 2.7562697 9.3997778 10.500855
5 2 1.4872028171 10.494449 11.454913
93 2 6.5097719 8.6484336 8.7369766
204 1 1.2060365919 10.6643 7.1059088
72 2 10.3668454 10.1735506 12.2763751902
155 1 7.475786 12.4394300332 9.8863685
125 2 8.622049 6.9865508 9.4492692
193 1 8.0068015 12.02976 7.2251162
86 2 11.406808 9.324293 7.0229566
18 1 12.1415303378 8.7100627 8.7218627
21 2 8.1175467 7.3892854 12.0985823947
110 2 10.676889 12.1694511499 10.753876
97 1 7.1284384 10.430554 11.489462
20 1 7.8410666 7.6353866 7.776328
178 1 12.012814 11.139493 9.765467
12 1 7.3156259 8.0130026 10.429964
38 2 11.015108 7.377677 8.6201121
175 2 11.229877 11.746446 8.0432128
43 1 9.5534923 10.772437 10.616277
133 2 8.7655092 11.415785 8.8959575
126 2 10.862981 9.7695665 9.6441291
199 2 8.2483121 11.829694 11.573309
140 1 11.678133 9.1400034 11.325383
4 1 7.6222846 10.0395973 8.8261662
14 2 10.519917 7.7683297 11.197069
188 1 9.7131054 8.40185 9.5663911
80 2 8.9405172 9.0382174 7.8877193
150 2 8.4239117 9.3918809 10.517578
156 1 10.09791 10.3793679 7.9665743
