 # LAMMPS timestep 299000
  
         215  atoms
           3  atom types
 
      0.000000000000      11.338254345600  xlo xhi
      0.000000000000      11.338254345600  ylo yhi
      0.000000000000      11.338254345600  zlo zhi
 
Masses
 
            1   24.30500000             # Mg
            2   15.99900000             # O
            3   20.17970000             # Ne
 
Atoms # atomic
 
         1    1        5.017535472800      10.187881172800       4.356657672800
         2    1        2.900047172800       2.828620572800       4.710656672800
         3    1        4.889207472800       1.240529172800       5.428738172800
         4    1        6.541411772800       8.958724472800       7.745293372800
         5    2        0.406329989900       9.413576172800      10.374040172800
         6    2       10.691728172800      10.219054172800       4.337186672800
         7    2        0.509250772800       2.459305672800       9.889512172800
         8    2        3.885870872800       8.790142872800       4.240009172800
         9    1        9.908150172800       4.029499572800       1.994630872800
        10    1        3.507820672800       4.581348572800       0.459408746100
        11    1       11.142118183200       5.342156472800       6.605531772800
        12    1        6.234753072800       6.932129772800       9.349091172800
        13    2        5.678826072800       5.149754172800       6.571273872800
        14    2        9.439044172800       6.687456872800      10.116196172800
        15    2        8.234243872800       9.886598172800       5.171531372800
        16    2        6.244424172800       4.707340972800       3.935633472800
        17    1        4.348160772800       6.178298472800       7.573685272800
        18    1       11.060657510600       7.629189872800       7.640989872800
        19    1        1.043944572800       4.303230272800       1.197315072800
        20    1        6.760193772800       6.554513772800       6.695455172800
        21    2        7.036673872800       6.308412572800      11.017709567500
        22    2       10.994082172800       5.447771372800       2.055712572800
        23    2       10.833098172800       7.768906172800       3.233017872800
        24    2        4.213957872800      10.818506172800       2.696255372800
        25    1        9.655325172800       1.970753472800       3.647837472800
        26    1        1.880762772800       1.373957872800       9.030580272800
        27    1        4.661074872800       8.170096672800       5.928661472800
        28    1        1.918579872800       5.847476972800       8.431812272800
        29    2        4.129245772800       1.871957972800       3.725227272800
        30    2        9.079655972800       0.158840937400       0.923645072800
        31    2        1.263985872800      10.960134054000       6.155821572800
        32    2        6.522471972800       6.716930672800       2.343455772800
        33    1        3.438241972800       0.121155317100       0.990208472800
        34    1        5.854712872800       0.439078172800      11.468334461800
        35    1        7.761111972800       1.193389872800       1.899369172800
        36    1        9.140473872800       6.929088572800       5.831193872800
        37    2        6.462250372800       2.264105072800       2.853053772800
        38    2        9.934235172800       6.296804172800       7.539239272800
        39    2        2.107439072800       1.177742972800       1.966173972800
        40    2        8.410909872800       7.501389072800       4.124218072800
        41    1        0.494364232100       0.215153030500       4.424470472800
        42    1        3.969979272800      11.039904361100       9.697223172800
        43    1        8.472619472800       9.691564172800       9.535404172800
        44    1       10.387646172800      10.435344172800       0.014331595700
        45    2        8.779144472800       9.478273172800       2.537945372800
        46    2        9.420255172800       2.174893472800      10.673104172800
        47    2        3.206914872800       0.307447285700       8.015101772800
        48    2        6.776829772800       4.288025372800       1.284339172800
        49    1       10.714136172800       1.099946572800       9.757910172800
        50    1        5.205990572800       7.749717172800       3.287967672800
        51    1        2.386070472800       5.628721772800       5.747014272800
        52    1        3.606127872800       9.009091572800      11.246339188800
        53    2        4.865104872800       3.539948472800      10.882561172800
        54    2        9.959702172800       1.722185072800       8.037820672800
        55    2        7.515707672800       1.404677972800       8.886574672800
        56    2        2.153002972800       5.655025772800       1.388168172800
        57    1        5.664935672800       2.894705572800       1.178852972800
        58    1        5.543197572800       9.748962172800       1.695255772800
        59    1        9.655623172800       6.468114372800       3.098274972800
        60    1        1.162891372800       8.777796772800       0.744525972800
        61    2        0.805666972800       4.485264772800       8.372637772800
        62    2        4.561998972800       1.507504072800       1.100246472800
        63    2        5.640821772800       0.667904572800       7.124624072800
        64    2        3.567201372800       2.260501672800       6.435485672800
        65    1       11.310343169900       0.675603372800       7.079778472800
        66    1        8.075068172800       3.232736372800       0.290155662700
        67    1       11.031923578200       3.116590972800       8.200457772800
        68    1        0.813992572800       6.802578572800       2.216253772800
        69    2        4.404675272800       8.381730172800       1.624217972800
        70    2        0.262573900400       4.934804672800      10.870274172800
        71    2        1.995835372800       8.101280272800       2.405401272800
        72    2        9.285972572800       9.092677772800      11.195502363000
        73    1        5.419891872800       5.341685172800       2.220674672800
        74    1        3.789289572800       2.138082172800      10.824916172800
        75    1        8.584553872800       2.804201672800       9.007089772800
        76    1        7.561029572800       3.633838672800       2.962936972800
        77    2        2.717165572800       5.207481872800      10.109792172800
        78    2       10.190383172800       3.841285272800       6.512010672800
        79    2       11.194578660900       9.800207172800       1.677708072800
        80    2        7.859644372800       7.957344572800       6.806846472800
        81    1        8.282363572800       0.794924372800      10.605873172800
        82    1        8.850282772800       0.354273172800       7.961392672800
        83    1        7.299269672800       6.115300472800       4.047918972800
        84    1        0.259672753900       7.194725172800       4.911191372800
        85    2        7.799814272800       3.432015372800       7.314045072800
        86    2       10.325935172800       8.243420172800       5.942083772800
        87    2        1.671775372800       1.546296472800       4.519369872800
        88    2        2.495353372800       7.649120472800      11.107412797100
        89    1        9.374671872800       4.452410772800       4.746324672800
        90    1        5.386682672800       0.820034372800       2.762648172800
        91    1        2.752281472800       7.443763772800       4.050693572800
        92    1        1.619121072800       3.831706872800      10.042570172800
        93    2        5.428899072800       7.567560772800       7.656103772800
        94    2       10.419722172800       5.875281972800       4.822152572800
        95    2        6.657073872800      11.147934809200       1.818739472800
        96    2        1.815100372800      10.489710172800       3.537461472800
        97    1        6.047565572800       9.349681172800      10.408589172800
        98    1        4.335136972800       1.651135172800       8.148898772800
        99    1       10.770210172800       5.600740172800       9.225876272800
       100    1        0.297509272700       4.900926872800       3.614888772800
       101    2        0.165571995400       0.459940672800       0.125106944300
       102    2       10.485832172800       1.314836372800       5.371102172800
       103    2        0.078910511400       7.377547772800       0.554162972800
       104    2       11.250855663800       2.934671472800       1.117414572800
       105    1        4.098179772800       4.147048572800       9.224888272800
       106    1        5.724206972800       7.352601572800       0.647894872800
       107    1        7.966230872800      10.101692172800       0.865898272800
       108    1        3.098820972800       9.461682172800       2.586515872800
       109    2        3.350833772800       9.252937172800       6.930663972800
       110    2        9.596016172800      11.088578322700       9.673003172800
       111    2        5.970299772800       7.132358572800       4.978042572800
       112    2        7.250910672800       3.875986572800       9.967758172800
       113    1        0.228041072400       2.619271672800       5.414312072800
       114    1        4.133207672800       8.619384772800       8.600294472800
       115    1        2.965349272800       4.996868272800       3.064178672800
       116    1        1.279997672800       1.824704072800       0.264049572700
       117    2        5.149551072800       5.549364872800       9.240424772800
       118    2        5.101290472800       1.099664372800       9.802426172800
       119    2        9.158617172800       4.619846172800       0.339323266500
       120    2        2.655702572800       0.777433272800      10.673048172800
       121    1        8.127628572800       7.715987972800      -0.228682785500
       122    1        2.029664472800      10.330801172800       7.854430172800
       123    1        6.193584272800       2.478848172800       9.877859172800
       124    1       10.065210172800       8.435519372800       1.543526272800
       125    2        7.541176172800       5.905677972800       8.368396372800
       126    2        9.782108172800       8.688693672800       8.563256272800
       127    2        4.915791172800       7.990923272800      10.336704172800
       128    2        8.942589672800       7.073247972800       1.418567272800
       129    1        8.350839272800       5.277014172800      10.028021172800
       130    1        7.038284672800       4.055351672800       5.636902472800
       131    1        0.973991672800      11.136259453200       1.821726272800
       132    1       10.249462172800       6.024888472800       0.416301761800
       133    2        7.684636372800      10.334912172800       7.815084672800
       134    2        1.099249672800       2.064187572800       7.311441472800
       135    2        0.575962172800       6.938016072800       9.301167672800
       136    2        2.305888872800      10.084314172800       0.854080272800
       137    1        4.882087072800       5.727136372800       4.898760372800
       138    1        2.926336772800       0.518013772800       3.612419472800
       139    1        2.298873472800       3.287547772800       7.575366772800
       140    1       10.597260172800       8.059130572800      10.244510172800
       141    2        0.748193372800       0.067417000100       8.809115872800
       142    2        1.567051272800       6.086275272800       3.936566072800
       143    2        3.035271772800       2.708643072800       9.145265872800
       144    2        4.736882472800      10.399250172800      11.367708691100
       145    1        8.862752572800       4.854666772800       7.431186572800
       146    1        0.788273072800       2.272123372800       2.806761572800
       147    1        9.572270172800       8.869480172800       4.217858472800
       148    1        9.149953872800       2.391444272800       6.378050572800
       149    2        1.056183872800       6.527990472800       6.712791572800
       150    2        7.343038872800       8.311008072800       9.436705172800
       151    2       10.997101409600       0.911117772800       2.766534372800
       152    2        8.082924472800       5.502843972800       5.736926572800
       153    1        7.099968172800       8.520661572800       5.088015772800
       154    1        4.487652072800      10.612900172800       7.017866872800
       155    1        6.394913172800      11.358557206000       8.805495672800
       156    1        9.017037172800       9.298495072800       6.885701472800
       157    2        2.827097572800       9.660900172800       9.563118172800
       158    2        1.847221972800       3.608296872800       2.894470072800
       159    2        5.770031472800       9.556854172800       6.030604472800
       160    2        8.613909072800       5.077558472800       3.047218872800
       161    1        9.332543172800      -0.035272821100       5.288885572800
       162    1        3.838545772800       6.599331972800      10.184676172800
       163    1        5.955143872800       4.920432472800      10.949988172800
       164    1        7.465438672800      10.528289172800       3.484601572800
       165    2        3.303785872800       4.740987272800       7.561295172800
       166    2        8.375032372800       3.024232672800       4.656372972800
       167    2        5.381359072800       3.089806772800       8.195023372800
       168    2        1.472568172800       8.464227672800       5.126293472800
       169    1        1.373837472800       6.304971172800      10.975383160100
       170    1        6.726935672800       2.017248172800       7.218839472800
       171    1        5.157796272800       3.318124772800       3.817017172800
       172    1        7.263056772800       1.653005972800       4.547413072800
       173    2        8.566393572800       0.580321772800       3.594334972800
       174    2        3.734011072800      -0.096569407800       5.328734072800
       175    2       10.149004172800      10.665573172800       6.962339972800
       176    2        6.184265272800       0.242203432900       4.452098972800
       177    1        7.845488572800       5.671550372800       1.319953472800
       178    1       10.931941172800      10.058620172800       8.684594172800
       179    1        2.421412072800       0.942444872800       6.292500672800
       180    1        1.523877272800      10.720395172800      10.513116172800
       181    2        9.688264172800       4.193060472800       9.071444572800
       182    2       10.721770642900       3.423658072800       3.654128672800
       183    2        3.813465172800       4.331358472800       4.788600972800
       184    2        6.970147072800       1.836286372800       0.228106367700
       185    1        2.566174472800       9.863441172800       5.229603572800
       186    1       10.499876172800       3.534165972800      10.768145172800
       187    1        7.651112772800       8.112228172800       2.411238172800
       188    1        8.632232572800       7.320977172800       8.485518272800
       189    2        5.914983772800       2.708534872800       5.507596872800
       190    2        5.267017872800       9.994634172800       8.713036372800
       191    2        8.874222472800       2.599710272800       1.965964172800
       192    2        0.902154072800       8.962528472800       7.743543572800
       193    1        6.925928672800      10.948887172800       6.144243372800
       194    1        1.675396872800       8.318904972800       9.419982172800
       195    1       10.174637172800       1.538757372800       1.056984472800
       196    1        4.602456972800       3.718490472800       6.519970772800
       197    2        4.616235072800       5.936367172800       0.563343072800
       198    2        3.541009172800       6.773403272800       5.853659472800
       199    2        7.167439272800      10.748821172800      10.492436172800
       200    2        4.080935172800       6.349242972800       3.219471972800
       201    1        2.222737572800       7.872952172800       6.858323172800
       202    1        3.245680072800       2.538692772800       2.050899172800
       203    1        9.893831172800      10.856042172800       2.641884372800
       204    1        0.125163764700       9.583427172800       6.025035972800
       205    2        2.402615472800       3.178394972800       0.375708159200
       206    2        3.038162072800       7.224480072800       8.503996272800
       207    2        8.056525572800       1.012924172800       6.219836072800
       208    2        6.828023472800       8.730459372800       0.746495572800
       209    1        3.294274072800       7.000588872800       1.462031872800
       210    1        6.462060672800       4.491454472800       8.254136972800
       211    2        6.330941272800       9.153242372800       3.399774172800
       212    2        4.316809772800       3.955996372800       2.165799472800
       213    3        0.674628572800       9.135828972800       3.391652872800
       214    3        1.454735436900       4.016263272800       5.312352672800
       215    3        1.098957393000       4.050206972800       5.920790072800
