ITEM: TIMESTEP
400000
ITEM: NUMBER OF ATOMS
215
ITEM: BOX BOUNDS pp pp pp
1.0897046722 12.4102953278
1.0897046722 12.4102953278
1.0897046722 12.4102953278
ITEM: ATOMS id type x y z
62 2 5.7129472 2.4796546 2.1636022
202 1 4.3976131 3.5470204 3.0759933
2 1 4.0163848 3.8042456 5.725516
87 2 2.8034003 2.5827933 5.5604329
158 2 3.0293698 4.6097862 3.9256929
212 2 5.4821134 4.9529784 3.2063538
29 2 5.2634661 2.8845488 4.7415221
115 1 4.1310028 5.9669982 4.1321334
39 2 3.2563518 2.1648553 3.0227885
183 2 4.9607898 5.2778085 5.8147227
138 1 4.1002738 1.555289 4.6300883
171 1 6.3410646 4.2732797 4.8740485
10 1 4.7090579 5.5719892 1.5187275492
116 1 1.9340184 3.2502501 3.8360359
100 1 1.9690840549 5.4458796 3.145858
205 2 3.5792973 4.1692232 1.410491056
41 1 1.5276062015 1.9138585307 5.8220641
3 1 6.0323438 2.262544 6.4981896
90 1 6.519134 1.8312457 3.8090211
56 2 3.3200532 6.6458121 2.430376
26 1 2.4601004 2.7930836 1.2744018863
51 1 1.6345409103 7.3893821 4.6556977
179 1 2.170148774 3.9028557 7.1654152
215 3 2.2919020812 4.9549042 6.5735397
73 1 6.577343 6.3332529 3.325901
104 2 12.4292604418 3.9061729 2.2195646
57 1 6.8042954 3.9003311 2.2736441
151 2 12.1575291565 1.9182731 3.80013
16 2 7.3593522 5.7017392 4.9959976
182 2 11.844653 4.4011935 4.7352177
37 2 7.6283962 3.2332244 3.8924762
9 1 11.046559 5.0336475 3.062918
48 2 7.9069775 5.2932916 2.3602044
76 1 8.6946336 4.6479117 4.0325753
160 2 9.7897292 6.0240745 4.1231796
25 1 10.805804 2.9687864 4.728651
191 2 9.9880809 3.604083 3.0262983
35 1 8.9404569 2.1938032 2.9475776
166 2 9.5002179 4.0246207 5.7095068
172 1 8.4155686 2.626505 5.608419
173 2 9.7234861 1.56781 4.6389889
195 1 11.314862 2.5373659 2.1127617
89 1 10.566121 5.4370247 5.8216904
119 2 10.2929386 5.6538281 1.4465965
66 1 9.2332362 4.2342959 1.366933157
176 2 7.2868715 1.2564088385 5.5185627
184 2 8.1186288 2.8645478 1.2716384995
189 2 7.0774892 3.6831489 6.5764481
177 1 8.95438 6.6734095 2.4117013
94 2 11.601756 6.8726963 5.8884952
30 2 10.2598615 1.156748731 1.9711887
102 2 11.597802 2.3418335 6.4563416
137 1 6.0020697 6.7519095 5.9872983
33 1 4.5883728 12.4304039883 2.0451983
131 1 2.1632805 12.117305368 2.815101
174 2 4.848906 12.2547001837 6.3886052
197 2 5.7790136 6.9532948 1.6522751
142 2 2.7518556 7.0854476 5.0212067
200 2 5.2050701 7.367705 4.2748512
1 1 6.163826 11.179854 5.429774
136 2 3.4713445 11.071663 1.923552
69 2 5.5558148 9.3889024 2.6705191
71 2 3.1319263 9.0881601 3.4820527
24 2 5.3731906 11.789572 3.7167455
91 1 3.8793118 8.4327459 5.1945484
108 1 4.2546311 10.429634 3.6321336
8 2 5.02342 9.8080371 5.326236
96 2 2.952766 11.513496 4.56374
50 1 6.3287232 8.7721102 4.3632116
68 1 1.9793649 7.7610527 3.2857974
213 3 1.7505465 10.9487426405 4.6673892
60 1 2.3659891 9.7247643 1.8337051
168 2 2.618377 9.5097467 6.1552702
209 1 4.4785745 7.9998415 2.5791243
185 1 3.7149182 10.895056 6.2446795
84 1 1.4450871552 8.2106588 6.0969048
58 1 6.6859478 10.74239 2.7722238
144 2 5.8851834 11.410839 1.0688878064
22 2 12.1363111425 6.4198618 3.1377118
79 2 12.3281816143 10.764143 2.7057178
103 2 12.5331113073 8.4042161 1.6397264
106 1 6.860972 8.34499 1.6883237
161 1 10.482573 12.2758724402 6.3175003
23 2 11.9879169678 8.7750399 4.3219399
83 1 8.433906 7.0835378 5.0712012
132 1 11.369521 7.0707278 1.5197463848
95 2 7.8293627 12.1227839844 2.8676737
111 2 7.1121316 8.1230628 6.0409759
203 1 11.052263 11.853637 3.6765107
107 1 9.1222634 11.083438 1.9224021
59 1 10.815385 7.452803 4.1879686
6 2 11.789367 11.23404 5.3771288
187 1 8.7749781 9.104375 3.5063075
211 2 7.4553702 10.1400534 4.4755501
128 2 10.0688222 8.0561565 2.5220665
45 2 9.8883749 10.49624 3.5851751
40 2 9.5365311 8.5101648 5.1622341
32 2 7.6719115 7.733678 3.3681993
124 1 11.192845 9.4321176 2.6674969
164 1 8.5899242 11.52989 4.5651544
208 2 7.9771543 9.7207663 1.8110769
147 1 10.662308 9.8645366 5.2986509
153 1 8.2206879 9.5151984 6.1379018
15 2 9.3435119 10.900163 6.2648423
44 1 11.537031 11.414991 1.0090594706
101 2 1.3292629383 1.4601923 12.4727301703
214 3 2.3576292792 4.9362233 6.6907578
146 1 3.6269287 6.4928524 6.8921547
196 1 3.5251397 1.9915284 7.3173366
19 1 2.5868715 5.0092207 12.0439380597
113 1 5.7719713 4.6960734 7.5475299
53 2 6.0207323 4.5079013 11.9253859702
74 1 4.9195371 3.0873957 11.860851
64 2 4.7214502 3.2710963 7.4894001
165 2 4.4564457 5.759868 8.5673862
98 1 5.483754 2.7010816 9.1846231
105 1 5.2456537 5.1514369 10.2761782
143 2 4.1639441 3.7221458 10.222808
118 2 6.2045425 2.0803908 10.873622
134 2 2.2867754 3.0529364 8.3533398
92 1 3.2411475 4.4973712 9.6001556
77 2 3.8747287 6.2189954 11.130229
7 2 1.6701151 3.4692662 10.876613
120 2 3.7656116 1.7291991 11.708184
61 2 1.9690522 5.5190428 9.4180413
154 1 3.0069325 2.3678833 10.0665165
47 2 4.2940273 1.357635769 9.0753946
70 2 1.3909698625 5.9422235 11.956457
117 2 6.3062608 6.5542315 10.3104204
167 2 6.5428915 4.1160032 9.2609235
65 1 1.073983652 1.7289832 8.1467791
13 2 6.7928399 6.1213329 7.6669755
34 1 7.024159 1.4608360181 12.5199603162
63 2 6.76551 1.6673502 8.211143
130 1 8.1630233 5.088088 6.6813223
152 2 9.2366267 6.5048959 6.7770377
11 1 12.2896585662 6.3315865 7.8022143
67 1 12.1897036631 4.1355868 9.2721771
163 1 7.1002788 5.9053523 11.9990916287
210 1 7.6037505 5.519939 9.3385347
170 1 7.8736479 3.0570162 8.2542578
186 1 11.642298 4.535702 11.850069
46 2 10.551244 3.1811998 11.717186
129 1 9.49087 6.2359922 11.083594
148 1 10.2753894 3.4227391 7.4101637
54 2 11.055043 2.7963405 9.0944689
78 2 11.313158 4.8595213 7.5352421
123 1 7.3406513 3.4541517 10.925107
81 1 9.4303448 1.8119382 11.618431
75 1 9.7358991 3.8149026 10.0567939
85 2 8.9448242 4.4548232 8.3693473
55 2 8.6460238 2.4428808 9.9312428
145 1 10.0009192 5.8655336 8.5128372
181 2 10.862187 5.1882731 10.1631319
112 2 8.4150336 4.8568753 11.025614
207 2 9.1707159 2.0300305 7.2623162
49 1 11.870923 2.0931146 10.78785
82 1 9.9570339 1.3970231565 8.9640065
99 1 11.889143 6.6024692 10.3463382
52 1 4.7722464 10.0056507 12.2944151315
141 2 1.8518851 12.3744735236 9.8408229
31 2 2.4019618 11.9420690125 7.201135
139 1 3.0591803 6.8668924 9.4345461
88 2 3.6515797 8.6425035 12.1985253885
204 1 1.2606753663 10.588179 7.0435832
198 2 4.6921915 7.8187958 6.9399736
169 1 2.5245415 7.2812191 12.0581356473
27 1 5.8220486 9.1780144 7.004349
42 1 5.1008176 12.01435 10.737201
17 1 5.4976256 7.1529117 8.6650648
201 1 3.3753335 8.8916325 7.8475061
162 1 4.9525176 7.5887223 11.252835
122 1 3.1790151 11.316532 8.8712795
157 2 3.9707432 10.632199 10.587641
206 2 4.1412646 8.2222662 9.5333578
180 1 2.6732885 11.668102 11.552802
114 1 5.2566518 9.6044018 9.6438341
109 2 4.5152402 10.2478609 7.9472255
135 2 1.7019343 7.9388799 10.3512488
192 2 2.0609764 9.9645045 8.759324
149 2 2.2089499 7.5510986 7.7583158
127 2 6.0740443 8.9781925 11.337013
194 1 2.8452351 9.2807932 10.4731692
5 2 1.5493922 10.346278 11.393508
4 1 5.6290386 11.631333 8.0678873
190 2 6.4037225 10.980322 9.7561885
93 2 6.5837799 8.5546267 8.691246
110 2 10.751848 12.080832768 10.642431
155 1 7.5029314 12.386434633 9.8751344
121 1 9.27671 8.6767778 12.1933696022
72 2 10.38892 10.0498101 12.2601339716
125 2 8.6861448 6.910609 9.4269731
28 1 12.2117262048 8.6463673 8.7751358
36 1 10.2933082 7.9146952 6.8877103
159 2 6.9428305 10.562447 7.133084
21 2 8.187402 7.2974246 12.0436168984
86 2 11.45261 9.2344648 7.0092762
193 1 8.0719293 11.957038 7.2162745
18 1 7.7256363 9.9412197 8.8245045
97 1 7.1756018 10.379043 11.492265
20 1 7.8903517 7.5338165 7.7055769
178 1 12.05989 11.016059 9.7194418
12 1 7.3815397 7.9489232 10.413831
38 2 11.058998 7.2813404 8.6606056
175 2 11.277878 11.665509 8.0257027
43 1 9.5976405 10.724047 10.591843
133 2 8.8221643 11.349882 8.9031428
126 2 10.906323 9.6660154 9.6452283
199 2 8.3192547 11.741946 11.576127
140 1 11.678483 9.0354317 11.3597116233
14 2 10.577162 7.6626904 11.207541
188 1 9.7494485 8.3145323 9.5525876
80 2 8.9921245 8.9167754 7.8438628
150 2 8.4831754 9.3445747 10.53207
156 1 10.1586158 10.2793564 7.9592366
