 # LAMMPS timestep 400000
  
         215  atoms
           3  atom types
 
      0.000000000000      11.320590655600  xlo xhi
      0.000000000000      11.320590655600  ylo yhi
      0.000000000000      11.320590655600  zlo zhi
 
Masses
 
            1   24.30500000             # Mg
            2   15.99900000             # O
            3   20.17970000             # Ne
 
Atoms # atomic
 
         1    1        5.074121327800      10.090149327800       4.340069327800
         2    1        2.926680127800       2.714540927800       4.635811327800
         3    1        4.942639127800       1.172839327800       5.408484927800
         4    1        4.539333927800      10.541628327800       6.978182627800
         5    2        0.459687527800       9.256573327800      10.303803327800
         6    2       10.699662327800      10.144335327800       4.287424127800
         7    2        0.580410427800       2.379561527800       9.786908327800
         8    2        3.933715327800       8.718332427800       4.236531327800
         9    1        9.956854327800       3.943942827800       1.973213327800
        10    1        3.619353227800       4.482284527800       0.429022877000
        11    1       11.199953894000       5.241881827800       6.712509627800
        12    1        6.291835027800       6.859218527800       9.324126327800
        13    2        5.703135227800       5.031628227800       6.577270827800
        14    2        9.487457327800       6.572985727800      10.117836327800
        15    2        8.253807227800       9.810458327800       5.175137627800
        16    2        6.269647527800       4.612034527800       3.906292927800
        17    1        4.407920927800       6.063207027800       7.575360127800
        18    1        6.635931627800       8.851515027800       7.734799827800
        19    1        1.497166827800       3.919516027800      10.954233387500
        20    1        6.800647027800       6.444111827800       6.615872227800
        21    2        7.097697327800       6.207719927800      10.953912226200
        22    2       11.046606470300       5.330157127800       2.048007127800
        23    2       10.898212295600       7.685335227800       3.232235227800
        24    2        4.283485927800      10.699867327800       2.627040827800
        25    1        9.716099327800       1.879081727800       3.638946327800
        26    1        1.370395727800       1.703378927800       0.184697214100
        27    1        4.732343927800       8.088309727800       5.914644327800
        28    1       11.122021532600       7.556662627800       7.685431127800
        29    2        4.173761427800       1.794844127800       3.651817427800
        30    2        9.170156827800       0.067044058800       0.881484027800
        31    2        1.312257127800      10.852364340300       6.111430327800
        32    2        6.582206827800       6.643973327800       2.278494627800
        33    1        3.498668127800      11.340699316100       0.955493627800
        34    1        5.934454327800       0.371131345900      11.430255644000
        35    1        7.850752227800       1.104098527800       1.857872927800
        36    1        9.203603527800       6.824990527800       5.798005627800
        37    2        6.538691527800       2.143519727800       2.802771527800
        38    2        9.969293327800       6.191635727800       7.570900927800
        39    2        2.166647127800       1.075150627800       1.933083827800
        40    2        8.446826427800       7.420460127800       4.072529427800
        41    1        0.437901529300       0.824153858500       4.732359427800
        42    1        4.011112927800      10.924645327800       9.647496327800
        43    1        8.507935827800       9.634342327800       9.502138327800
        44    1       10.447326327800      10.325286327800      -0.080645201600
        45    2        8.798670227800       9.406535327800       2.495470427800
        46    2        9.461539327800       2.091495127800      10.627481327800
        47    2        3.204322627800       0.267931096800       7.985689927800
        48    2        6.817272827800       4.203586927800       1.270499727800
        49    1       10.781218327800       1.003409927800       9.698145327800
        50    1        5.239018527800       7.682405527800       3.273506927800
        51    1        0.544836238100       6.299677427800       3.565993027800
        52    1        3.682541727800       8.915946027800      11.204710459300
        53    2        4.931027627800       3.418196627800      10.835681298000
        54    2        9.965338327800       1.706635827800       8.004764227800
        55    2        7.556319127800       1.353176127800       8.841538127800
        56    2        2.230348527800       5.556107427800       1.340671327800
        57    1        5.714590727800       2.810626427800       1.183939427800
        58    1        5.596243127800       9.652685327800       1.682519127800
        59    1        9.725680327800       6.363098327800       3.098263927800
        60    1        1.276284427800       8.635059627800       0.744000427800
        61    2        0.879347527800       4.429338127800       8.328336627800
        62    2        4.623242527800       1.389949927800       1.073897527800
        63    2        5.675805327800       0.577645527800       7.121438327800
        64    2        3.631745527800       2.181391627800       6.399695427800
        65    1       -0.015721020200       0.639278527800       7.057074427800
        66    1        8.143531527800       3.144591227800       0.277228484800
        67    1       11.099998990900       3.045882127800       8.182472427800
        68    1        0.889660227800       6.671348027800       2.196092727800
        69    2        4.466110127800       8.299197727800       1.580814427800
        70    2        0.301265190300       4.852518827800      10.866752327800
        71    2        2.042221627800       7.998455427800       2.392348027800
        72    2        9.299215327800       8.960105427800      11.170429299400
        73    1        5.487638327800       5.243548227800       2.236196327800
        74    1        3.829832427800       1.997691027800      10.771146327800
        75    1        8.646194427800       2.725197927800       8.967089227800
        76    1        7.604928927800       3.558207027800       2.942870627800
        77    2        2.785024027800       5.129290727800      10.040524327800
        78    2       10.223453327800       3.769816627800       6.445537427800
        79    2       11.238476942100       9.674438327800       1.616013127800
        80    2        7.902419827800       7.827070727800       6.754158127800
        81    1        8.340640127800       0.722233527800      10.528726327800
        82    1        8.867329227800       0.307318484300       7.874301827800
        83    1        7.344201327800       5.993833127800       3.981496527800
        84    1        0.355382483000       7.120954127800       5.007200127800
        85    2        7.855119527800       3.365118527800       7.279642627800
        86    2       10.362905327800       8.144760127800       5.919571527800
        87    2        1.713695627800       1.493088627800       4.470728227800
        88    2        2.561875027800       7.552798827800      11.108820716300
        89    1        9.476416327800       4.347320027800       4.731985727800
        90    1        5.429429327800       0.741541027800       2.719316427800
        91    1        2.789607127800       7.343041227800       4.104843727800
        92    1        2.151442827800       3.407666527800       8.510450927800
        93    2        5.494075227800       7.464922027800       7.601541327800
        94    2       10.512051327800       5.782991627800       4.798790527800
        95    2        6.739658027800      11.033079312200       1.777969027800
        96    2        1.863061327800      10.423791327800       3.474035327800
        97    1        6.085897127800       9.289338327800      10.402560327800
        98    1        4.394049327800       1.611376927800       8.094918427800
        99    1       10.799438327800       5.512764527800       9.256633527800
       100    1        0.879379382700       4.356174927800       2.056153327800
       101    2        0.239558266100       0.370487627800      11.383025498100
       102    2       10.508097327800       1.252128827800       5.366636927800
       103    2       11.443406635100       7.314511427800       0.550021727800
       104    2       11.339555769600       2.816468227800       1.129859927800
       105    1        4.155949027800       4.061732227800       9.186473527800
       106    1        5.771267327800       7.255285327800       0.598619027800
       107    1        8.032558727800       9.993733327800       0.832697427800
       108    1        3.164926427800       9.339929327800       2.542428927800
       109    2        3.425535527800       9.158156227800       6.857520827800
       110    2        9.662143327800      10.991128095800       9.552726327800
       111    2        6.022426927800       7.033358127800       4.951271227800
       112    2        7.325328927800       3.767170627800       9.935909327800
       113    1        4.682266627800       3.606368727800       6.457825227800
       114    1        4.166947127800       8.514697127800       8.554129427800
       115    1        3.041298127800       4.877293527800       3.042428727800
       116    1        0.844313727800       2.160545427800       2.746331227800
       117    2        5.216556127800       5.464526827800       9.220715727800
       118    2        5.114837827800       0.990686127800       9.783917327800
       119    2        9.203233927800       4.564123427800       0.356891827800
       120    2        2.675906927800       0.639494427800      10.618479327800
       121    1        8.187005327800       7.587073127800      11.103664930000
       122    1        2.089310427800      10.226827327800       7.781574827800
       123    1        6.250946627800       2.364447027800       9.835402327800
       124    1       10.103140327800       8.342412927800       1.577792227800
       125    2        7.596440127800       5.820904327800       8.337268427800
       126    2        9.816618327800       8.576310727800       8.555523627800
       127    2        4.984339627800       7.888487827800      10.247308327800
       128    2        8.979117527800       6.966451827800       1.432361827800
       129    1        8.401165327800       5.146287527800       9.993889327800
       130    1        7.073318627800       3.998383327800       5.591617627800
       131    1        1.073575827800      11.027600695800       1.725396327800
       132    1       10.279816327800       5.981023127800       0.430041712600
       133    2        7.732459627800      10.260177327800       7.813438127800
       134    2        1.197070727800       1.963231727800       7.263635127800
       135    2        0.612229627800       6.849175227800       9.261544127800
       136    2        2.381639827800       9.981958327800       0.833847327800
       137    1        4.912365027800       5.662204827800       4.897593627800
       138    1        3.010569127800       0.465584327800       3.540383627800
       139    1        1.969475627800       5.777187727800       8.344841427800
       140    1       10.588778327800       7.945727027800      10.270006951100
       141    2        0.762180427800      11.284768851400       8.751118227800
       142    2        1.662150927800       5.995742927800       3.931502027800
       143    2        3.074239427800       2.632441127800       9.133103327800
       144    2        4.795478727800      10.321134327800      -0.020816865800
       145    1        8.911214527800       4.775828927800       7.423132527800
       146    1        2.537224027800       5.403147727800       5.802450027800
       147    1        9.572603327800       8.774831927800       4.208946227800
       148    1        9.185684727800       2.333034427800       6.320459027800
       149    2        1.119245227800       6.461393927800       6.668611127800
       150    2        7.393470727800       8.254870027800       9.442365327800
       151    2       11.067824484300       0.828568427800       2.710425327800
       152    2        8.146922027800       5.415191227800       5.687333027800
       153    1        7.130983227800       8.425493727800       5.048197127800
       154    1        1.917227827800       1.278178627800       8.976811827800
       155    1        6.413226727800      11.296729960800       8.785429727800
       156    1        9.068911127800       9.189651727800       6.869531927800
       157    2        2.881038527800       9.542494327800       9.497936327800
       158    2        1.939665127800       3.520081527800       2.835988227800
       159    2        5.853125827800       9.472742327800       6.043379327800
       160    2        8.700024527800       4.934369827800       3.033474927800
       161    1        9.392868327800      11.186167768000       5.227795627800
       162    1        3.862812927800       6.499017627800      10.163130327800
       163    1        6.010574127800       4.815647627800      10.909386956500
       164    1        7.500219527800      10.440185327800       3.475449727800
       165    2        3.366741027800       4.670163327800       7.477681527800
       166    2        8.410513227800       2.934916027800       4.619802127800
       167    2        5.453186827800       3.026298527800       8.171218827800
       168    2        1.528672327800       8.420042027800       5.065565527800
       169    1        1.434836827800       6.191514427800      10.968430975100
       170    1        6.783943227800       1.967311527800       7.164553127800
       171    1        5.251359927800       3.183575027800       3.784343827800
       172    1        7.325863927800       1.536800327800       4.518714327800
       173    2        8.633781427800       0.478105327800       3.549284227800
       174    2        3.759201327800      11.164995511500       5.298900527800
       175    2       10.188173327800      10.575804327800       6.935998027800
       176    2        6.197166827800       0.166704166300       4.428858027800
       177    1        7.864675327800       5.583704827800       1.321996627800
       178    1       10.970185327800       9.926354327800       8.629737127800
       179    1        1.080444101800       2.813151027800       6.075710527800
       180    1        1.583583827800      10.578397327800      10.463097327800
       181    2        9.772482327800       4.098568427800       9.073427227800
       182    2       10.754948327800       3.311488827800       3.645513027800
       183    2        3.871085127800       4.188103827800       4.725018027800
       184    2        7.028924127800       1.774843127800       0.181933827300
       185    1        2.625213527800       9.805351327800       5.154974827800
       186    1       10.552593327800       3.445997327800      10.760364327800
       187    1        7.685273427800       8.014670327800       2.416602827800
       188    1        8.659743827800       7.224827627800       8.462882927800
       189    2        5.987784527800       2.593444227800       5.486743427800
       190    2        5.314017827800       9.890617327800       8.666483827800
       191    2        8.898376227800       2.514378327800       1.936593627800
       192    2        0.971271727800       8.874799827800       7.669619327800
       193    1        6.982224627800      10.867333327800       6.126569827800
       194    1        1.755530427800       8.191088527800       9.383464527800
       195    1       10.225157327800       1.447661227800       1.023057027800
       196    1        2.435435027800       0.901823727800       6.227631927800
       197    2        4.689308927800       5.863590127800       0.562570427800
       198    2        3.602486827800       6.729091127800       5.850268927800
       199    2        7.229550027800      10.652241327800      10.486422327800
       200    2        4.115365427800       6.278000327800       3.185146527800
       201    1        2.285628827800       7.801927827800       6.757801427800
       202    1        3.307908427800       2.457315727800       1.986288627800
       203    1        9.962558327800      10.763932327800       2.586806027800
       204    1        0.170970694100       9.498474327800       5.953878527800
       205    2        2.489592627800       3.079518527800       0.320786383800
       206    2        3.051559927800       7.132561527800       8.443653127800
       207    2        8.081011227800       0.940325827800       6.172611527800
       208    2        6.887449627800       8.631061627800       0.721372227800
       209    1        3.388869827800       6.910136827800       1.489419627800
       210    1        6.514045827800       4.430234327800       8.248830027800
       211    2        6.365665527800       9.050348727800       3.385845427800
       212    2        4.392408727800       3.863273727800       2.116649127800
       213    3        0.660841827800       9.859037968300       3.577684527800
       214    3        1.267924607000       3.846518627800       5.601053127800
       215    3        1.202197409000       3.865199527800       5.483835027800
